FoamFile
{
    version 2.0;
    format ascii;
    class volVectorField;
    location "0";
    object U;
}

dimensions [0 1 -1 0 0 0 0];

internalField nonuniform List<vector>
65536
(
(-6.7633723707001391e-03 -4.6823569751057951e-03 0.0000000000000000e+00)
(-6.7991432053619537e-03 -5.4316014111613301e-03 0.0000000000000000e+00)
(-6.8770601765939573e-03 -6.5343086802670310e-03 0.0000000000000000e+00)
(-6.9999460606235174e-03 -7.9631888355256100e-03 0.0000000000000000e+00)
(-7.1737805561914109e-03 -9.6658734298006779e-03 0.0000000000000000e+00)
(-7.4033880579267020e-03 -1.1567577645063921e-02 0.0000000000000000e+00)
(-7.6857795475904159e-03 -1.3563042634056870e-02 0.0000000000000000e+00)
(-8.0040117885991878e-03 -1.5499911143231505e-02 0.0000000000000000e+00)
(-8.3284835164540230e-03 -1.7149031481088820e-02 0.0000000000000000e+00)
(-8.6364332006127215e-03 -1.8209981164270195e-02 0.0000000000000000e+00)
(-8.9440970900255285e-03 -1.8415223852380515e-02 0.0000000000000000e+00)
(-9.3258302541252870e-03 -1.7697244100794953e-02 0.0000000000000000e+00)
...